
FAST Summary File

Predictions were generated on 06-Aug-2021 at 10:32:15 using OpenFAST, compiled as a 64-bit application using single precision at commit v3.0.0-3-g3e52efad-dirty
  compiled with
    NWTC Subroutine Library
    ElastoDyn
    BeamDyn (unknown version, unknown date) [not called]
    InflowWind (unknown version, unknown date) [not called]
    AeroDyn14 (unknown version, unknown date) [not called]
    AeroDyn (unknown version, unknown date) [not called]
    ServoDyn (unknown version, unknown date) [not called]
    HydroDyn
    SubDyn (unknown version, unknown date) [not called]
    ExtPtfm_MCKF (unknown version, unknown date) [not called]
    MAP (unknown version, unknown date) [not called]
    FEAMooring (unknown version, unknown date) [not called]
    MoorDyn (unknown version, unknown date) [not called]
    OrcaFlexInterface (unknown version, unknown date) [not called]
    IceFloe (unknown version, unknown date) [not called]
    IceDyn (unknown version, unknown date) [not called]


Modeling a floating offshore turbine
Description from the FAST input file: 
  FAST Certification Test #24: NREL 5.0 MW Baseline Wind Turbine with OC3 Hywind Configuration, foor use in offshore analysis

Interpolation order for input/output time histories: 1 (linear)
Number of correction iterations:  5
Number of rows in Jacobian matrix used for coupling ElastoDyn to HydroDyn:     12


   Requested Time Steps  
  -------------------------------------------------
  Component          Time Step (s)    Subcycles (-)
  -----------------  ---------------  -------------
  FAST (glue code)     1.0000000E-02
  ElastoDyn            1.0000000E-02         1
  HydroDyn             1.0000000E-02         1
  FAST output files    1.0000000E-01        10^-1


   Requested Channels in FAST Output File(s)  
  --------------------------------------------
  Number  Name                  Units                 Generated by
  ------  --------------------  --------------------  ------------
       1  Time                  (s)                   OpenFAST
       2  BldPitch1             (deg)                 ElastoDyn
       3  BldPitch2             (deg)                 ElastoDyn
       4  BldPitch3             (deg)                 ElastoDyn
       5  Azimuth               (deg)                 ElastoDyn
       6  RotSpeed              (rpm)                 ElastoDyn
       7  GenSpeed              (rpm)                 ElastoDyn
       8  NacYaw                (deg)                 ElastoDyn
       9  OoPDefl1              (m)                   ElastoDyn
      10  IPDefl1               (m)                   ElastoDyn
      11  TwstDefl1             (deg)                 ElastoDyn
      12  OoPDefl2              (m)                   ElastoDyn
      13  IPDefl2               (m)                   ElastoDyn
      14  TwstDefl2             (deg)                 ElastoDyn
      15  OoPDefl3              (m)                   ElastoDyn
      16  IPDefl3               (m)                   ElastoDyn
      17  TwstDefl3             (deg)                 ElastoDyn
      18  TwrClrnc1             (m)                   ElastoDyn
      19  TwrClrnc2             (m)                   ElastoDyn
      20  TwrClrnc3             (m)                   ElastoDyn
      21  NcIMUTAxs             (m/s^2)               ElastoDyn
      22  NcIMUTAys             (m/s^2)               ElastoDyn
      23  NcIMUTAzs             (m/s^2)               ElastoDyn
      24  TTDspFA               (m)                   ElastoDyn
      25  TTDspSS               (m)                   ElastoDyn
      26  TTDspTwst             (deg)                 ElastoDyn
      27  PtfmSurge             (m)                   ElastoDyn
      28  PtfmSway              (m)                   ElastoDyn
      29  PtfmHeave             (m)                   ElastoDyn
      30  PtfmRoll              (deg)                 ElastoDyn
      31  PtfmPitch             (deg)                 ElastoDyn
      32  PtfmYaw               (deg)                 ElastoDyn
      33  PtfmTAxt              (m/s^2)               ElastoDyn
      34  PtfmTAyt              (m/s^2)               ElastoDyn
      35  PtfmTAzt              (m/s^2)               ElastoDyn
      36  RootFxc1              (kN)                  ElastoDyn
      37  RootFyc1              (kN)                  ElastoDyn
      38  RootFzc1              (kN)                  ElastoDyn
      39  RootMxc1              (kN-m)                ElastoDyn
      40  RootMyc1              (kN-m)                ElastoDyn
      41  RootMzc1              (kN-m)                ElastoDyn
      42  RootFxc2              (kN)                  ElastoDyn
      43  RootFyc2              (kN)                  ElastoDyn
      44  RootFzc2              (kN)                  ElastoDyn
      45  RootMxc2              (kN-m)                ElastoDyn
      46  RootMyc2              (kN-m)                ElastoDyn
      47  RootMzc2              (kN-m)                ElastoDyn
      48  RootFxc3              (kN)                  ElastoDyn
      49  RootFyc3              (kN)                  ElastoDyn
      50  RootFzc3              (kN)                  ElastoDyn
      51  RootMxc3              (kN-m)                ElastoDyn
      52  RootMyc3              (kN-m)                ElastoDyn
      53  RootMzc3              (kN-m)                ElastoDyn
      54  Spn1MLxb1             (kN-m)                ElastoDyn
      55  Spn1MLyb1             (kN-m)                ElastoDyn
      56  Spn1MLzb1             (kN-m)                ElastoDyn
      57  Spn1MLxb2             (kN-m)                ElastoDyn
      58  Spn1MLyb2             (kN-m)                ElastoDyn
      59  Spn1MLzb2             (kN-m)                ElastoDyn
      60  Spn1MLxb3             (kN-m)                ElastoDyn
      61  Spn1MLyb3             (kN-m)                ElastoDyn
      62  Spn1MLzb3             (kN-m)                ElastoDyn
      63  RotThrust             (kN)                  ElastoDyn
      64  LSSGagFya             (kN)                  ElastoDyn
      65  LSSGagFza             (kN)                  ElastoDyn
      66  RotTorq               (kN-m)                ElastoDyn
      67  LSSGagMya             (kN-m)                ElastoDyn
      68  LSSGagMza             (kN-m)                ElastoDyn
      69  YawBrFxp              (kN)                  ElastoDyn
      70  YawBrFyp              (kN)                  ElastoDyn
      71  YawBrFzp              (kN)                  ElastoDyn
      72  YawBrMxp              (kN-m)                ElastoDyn
      73  YawBrMyp              (kN-m)                ElastoDyn
      74  YawBrMzp              (kN-m)                ElastoDyn
      75  TwrBsFxt              (kN)                  ElastoDyn
      76  TwrBsFyt              (kN)                  ElastoDyn
      77  TwrBsFzt              (kN)                  ElastoDyn
      78  TwrBsMxt              (kN-m)                ElastoDyn
      79  TwrBsMyt              (kN-m)                ElastoDyn
      80  TwrBsMzt              (kN-m)                ElastoDyn
      81  TwHt1MLxt             (kN-m)                ElastoDyn
      82  TwHt1MLyt             (kN-m)                ElastoDyn
      83  TwHt1MLzt             (kN-m)                ElastoDyn
